created by fftool

58 atoms
54 bonds
65 angles
78 dihedrals
21 atom types
13 bond types
8 angle types
9 dihedral types
0.000000 20.000000 xlo xhi
0.000000 20.000000 ylo yhi
0.000000 20.000000 zlo zhi

Masses

   1   13.607  # N4 DC
   2   11.611  # C1 DC
   3    1.008  # H1
   4   11.611  # C1A DC
   5   11.611  # COL DC
   6    1.008  # HC
   7   15.599  # OH DC
   8    1.008  # HO
   9   35.053  # Cl DC
  10   11.611  # CTO DC
  11   15.599  # OHG DC
  12    1.008  # H1O
  13    1.008  # HOG
  14    0.400  # N4 DP
  15    0.400  # C1 DP
  16    0.400  # C1A DP
  17    0.400  # COL DP
  18    0.400  # OH DP
  19    0.400  # Cl DP
  20    0.400  # CTO DP
  21    0.400  # OHG DP

Bond Coeffs

   1   382.002868     1.448000  # NT-CT
   2   339.985660     1.090000  # HC-CT
   3   267.925430     1.529000  # CT-CT
   4   320.004780     1.410000  # CT-OH
   5   552.999522     0.945000  # HO-OH
   6   500.000000     0.000000  # N4 DC-DP
   7   500.000000     0.000000  # C1 DC-DP
   8   500.000000     0.000000  # C1A DC-DP
   9   500.000000     0.000000  # COL DC-DP
  10   500.000000     0.000000  # OH DC-DP
  11   500.000000     0.000000  # Cl DC-DP
  12   500.000000     0.000000  # CTO DC-DP
  13   500.000000     0.000000  # OHG DC-DP

Angle Coeffs

   1    51.804493   107.200000  # CT-NT-CT
   2    35.002390   109.500000  # HC-CT-NT
   3    32.994742   107.800000  # HC-CT-HC
   4    56.202199   109.500000  # NT-CT-CT
   5    37.500000   110.700000  # CT-CT-HC
   6    50.000000   109.500000  # CT-CT-OH
   7    35.002390   109.500000  # HC-CT-OH
   8    54.995220   108.500000  # CT-OH-HO

Dihedral Coeffs

   1     0.000000     0.000000     0.559990     0.000000  # HC-CT-NT-CT
   2     0.415989    -0.128011     0.695005     0.000000  # CT-NT-CT-CT
   3    -1.013002    -0.709011     0.472992     0.000000  # HC-CT-CT-NT
   4   -10.528561    -1.298972     0.000000     0.000000  # OH-CT-CT-NT
   5     0.000000     0.000000     0.300000     0.000000  # HC-CT-CT-HC
   6     0.000000     0.000000     0.467997     0.000000  # HC-CT-CT-OH
   7    -0.355999    -0.173996     0.491993     0.000000  # CT-CT-OH-HO
   8     0.000000     0.000000     0.450000     0.000000  # HC-CT-OH-HO
   9     0.000000    -2.350000     0.288002     0.000000  # OH-CT-CT-OH

Atoms

      1       1    1   2.0273  4.916911e+00  3.467731e+00  3.485031e+00  # N4 cholinium DC
      2       1    2   2.2749  6.198620e+00  2.820728e+00  3.112036e+00  # C1 cholinium DC
      3       1    2   2.2749  5.048706e+00  3.997562e+00  4.863322e+00  # C1 cholinium DC
      4       1    2   2.2749  3.850616e+00  2.438350e+00  3.451020e+00  # C1 cholinium DC
      5       1    3   0.1300  5.825489e+00  4.792914e+00  4.913633e+00  # H1 cholinium
      6       1    3   0.1300  5.337287e+00  3.191668e+00  5.575277e+00  # H1 cholinium
      7       1    3   0.1300  4.090829e+00  4.417217e+00  5.236232e+00  # H1 cholinium
      8       1    3   0.1300  7.039441e+00  3.550268e+00  3.135898e+00  # H1 cholinium
      9       1    3   0.1300  6.148868e+00  2.391290e+00  2.085937e+00  # H1 cholinium
     10       1    3   0.1300  6.453434e+00  1.991968e+00  3.810792e+00  # H1 cholinium
     11       1    3   0.1300  3.711755e+00  2.039966e+00  2.421210e+00  # H1 cholinium
     12       1    3   0.1300  2.878769e+00  2.840587e+00  3.806518e+00  # H1 cholinium
     13       1    3   0.1300  4.100001e+00  1.582625e+00  4.118259e+00  # H1 cholinium
     14       1    4   2.0672  4.651697e+00  4.562826e+00  2.500811e+00  # C1A cholinium DC
     15       1    3   0.1300  5.495349e+00  5.291199e+00  2.515385e+00  # H1 cholinium
     16       1    5   2.5122  3.352762e+00  5.362997e+00  2.723266e+00  # COL cholinium DC
     17       1    3   0.1300  4.606458e+00  4.137650e+00  1.471396e+00  # H1 cholinium
     18       1    6   0.0600  3.376203e+00  5.863625e+00  3.714029e+00  # HC cholinium
     19       1    6   0.0600  2.471520e+00  4.691354e+00  2.652907e+00  # HC cholinium
     20       1    7   1.5389  3.249312e+00  6.343360e+00  1.728149e+00  # OH cholinium DC
     21       1    8   0.2980  2.408150e+00  6.837525e+00  1.911426e+00  # HO cholinium
     22       2    9   2.6401  1.500000e+00  8.794090e+00  1.850000e+01  # Cl Cl- DC
     23       3   10   2.3822  1.639626e+01  1.132260e+01  1.166754e+01  # CTO EG DC
     24       3   10   2.3822  1.695509e+01  1.168196e+01  1.030044e+01  # CTO EG DC
     25       3   11   1.5219  1.549137e+01  1.238771e+01  1.212320e+01  # OHG EG DC
     26       3   12   0.0600  1.721543e+01  1.121374e+01  1.237832e+01  # H1O EG
     27       3   12   0.0600  1.584675e+01  1.038363e+01  1.160065e+01  # H1O EG
     28       3   12   0.0600  1.613591e+01  1.179082e+01  9.589661e+00  # H1O EG
     29       3   11   1.5219  1.785998e+01  1.061685e+01  9.844782e+00  # OHG EG DC
     30       3   12   0.0600  1.750459e+01  1.262093e+01  1.036733e+01  # H1O EG
     31       3   13   0.3150  1.512372e+01  1.215129e+01  1.302261e+01  # HOG EG
     32       3   13   0.3150  1.822763e+01  1.085327e+01  8.945371e+00  # HOG EG
     33       4   10   2.3822  6.373428e+00  9.938099e+00  1.278877e+01  # CTO EG DC
     34       4   10   2.3822  5.975378e+00  9.159621e+00  1.154542e+01  # CTO EG DC
     35       4   11   1.5219  7.713068e+00  9.516990e+00  1.322344e+01  # OHG EG DC
     36       4   12   0.0600  5.655529e+00  9.743155e+00  1.358547e+01  # H1O EG
     37       4   12   0.0600  6.383836e+00  1.100434e+01  1.256266e+01  # H1O EG
     38       4   12   0.0600  6.693277e+00  9.354564e+00  1.074873e+01  # H1O EG
     39       4   11   1.5219  4.635738e+00  9.580730e+00  1.111076e+01  # OHG EG DC
     40       4   12   0.0600  5.964969e+00  8.093382e+00  1.177153e+01  # H1O EG
     41       4   13   0.3150  7.974943e+00  1.002915e+01  1.404143e+01  # HOG EG
     42       4   13   0.3150  4.373863e+00  9.068573e+00  1.029276e+01  # HOG EG
     43       1   14  -1.9073  4.872147e+00  3.426450e+00  3.475755e+00  # N4 cholinium DP
     44       1   15  -2.4449  6.159390e+00  2.860848e+00  3.065851e+00  # C1 cholinium DP
     45       1   15  -2.4449  5.052326e+00  3.980782e+00  4.898531e+00  # C1 cholinium DP
     46       1   15  -2.4449  3.816582e+00  2.422072e+00  3.434400e+00  # C1 cholinium DP
     47       1   16  -2.2372  4.626213e+00  4.512993e+00  2.494439e+00  # C1A cholinium DP
     48       1   17  -2.2372  3.311523e+00  5.372757e+00  2.680254e+00  # COL cholinium DP
     49       1   18  -2.1019  3.230858e+00  6.338192e+00  1.768689e+00  # OH cholinium DP
     50       2   19  -3.6401  1.459276e+00  8.758308e+00  1.852901e+01  # Cl Cl- DP
     51       3   20  -2.2372  1.634838e+01  1.136372e+01  1.167488e+01  # CTO EG DP
     52       3   20  -2.2372  1.693162e+01  1.171574e+01  1.032732e+01  # CTO EG DP
     53       3   21  -2.1019  1.547572e+01  1.241786e+01  1.209389e+01  # OHG EG DP
     54       3   21  -2.1019  1.787087e+01  1.061956e+01  9.875716e+00  # OHG EG DP
     55       4   20  -2.2372  6.354954e+00  9.927923e+00  1.281570e+01  # CTO EG DP
     56       4   20  -2.2372  5.976653e+00  9.178105e+00  1.155926e+01  # CTO EG DP
     57       4   21  -2.1019  7.729734e+00  9.556000e+00  1.322205e+01  # OHG EG DP
     58       4   21  -2.1019  4.652585e+00  9.568182e+00  1.106394e+01  # OHG EG DP

Bonds

      1    1       1       2  # NT-CT
      2    1       1       3  # NT-CT
      3    1       1       4  # NT-CT
      4    1       1      14  # NT-CT
      5    2       2       8  # HC-CT
      6    2       2       9  # HC-CT
      7    2       2      10  # HC-CT
      8    2       3       5  # HC-CT
      9    2       3       6  # HC-CT
     10    2       3       7  # HC-CT
     11    2       4      11  # HC-CT
     12    2       4      12  # HC-CT
     13    2       4      13  # HC-CT
     14    2      14      15  # HC-CT
     15    3      14      16  # CT-CT
     16    2      14      17  # HC-CT
     17    2      16      18  # HC-CT
     18    2      16      19  # HC-CT
     19    4      16      20  # CT-OH
     20    5      20      21  # HO-OH
     21    3      24      23  # CT-CT
     22    4      25      23  # CT-OH
     23    2      26      23  # HC-CT
     24    2      27      23  # HC-CT
     25    2      28      24  # HC-CT
     26    4      29      24  # CT-OH
     27    2      30      24  # HC-CT
     28    5      31      25  # HO-OH
     29    5      32      29  # HO-OH
     30    3      34      33  # CT-CT
     31    4      35      33  # CT-OH
     32    2      36      33  # HC-CT
     33    2      37      33  # HC-CT
     34    2      38      34  # HC-CT
     35    4      39      34  # CT-OH
     36    2      40      34  # HC-CT
     37    5      41      35  # HO-OH
     38    5      42      39  # HO-OH
     39    6       1      43  # N4 DC-DP
     40    7       2      44  # C1 DC-DP
     41    7       3      45  # C1 DC-DP
     42    7       4      46  # C1 DC-DP
     43    8      14      47  # C1A DC-DP
     44    9      16      48  # COL DC-DP
     45   10      20      49  # OH DC-DP
     46   11      22      50  # Cl DC-DP
     47   12      23      51  # CTO DC-DP
     48   12      24      52  # CTO DC-DP
     49   13      25      53  # OHG DC-DP
     50   13      29      54  # OHG DC-DP
     51   12      33      55  # CTO DC-DP
     52   12      34      56  # CTO DC-DP
     53   13      35      57  # OHG DC-DP
     54   13      39      58  # OHG DC-DP

Angles

      1    1       2       1       3  # CT-NT-CT
      2    1       2       1       4  # CT-NT-CT
      3    1       2       1      14  # CT-NT-CT
      4    1       3       1       4  # CT-NT-CT
      5    1       3       1      14  # CT-NT-CT
      6    1       4       1      14  # CT-NT-CT
      7    2       1       2       8  # HC-CT-NT
      8    2       1       2       9  # HC-CT-NT
      9    2       1       2      10  # HC-CT-NT
     10    3       8       2       9  # HC-CT-HC
     11    3       8       2      10  # HC-CT-HC
     12    3       9       2      10  # HC-CT-HC
     13    2       1       3       5  # HC-CT-NT
     14    2       1       3       6  # HC-CT-NT
     15    2       1       3       7  # HC-CT-NT
     16    3       5       3       6  # HC-CT-HC
     17    3       5       3       7  # HC-CT-HC
     18    3       6       3       7  # HC-CT-HC
     19    2       1       4      11  # HC-CT-NT
     20    2       1       4      12  # HC-CT-NT
     21    2       1       4      13  # HC-CT-NT
     22    3      11       4      12  # HC-CT-HC
     23    3      11       4      13  # HC-CT-HC
     24    3      12       4      13  # HC-CT-HC
     25    2       1      14      15  # HC-CT-NT
     26    4       1      14      16  # NT-CT-CT
     27    2       1      14      17  # HC-CT-NT
     28    5      15      14      16  # CT-CT-HC
     29    3      15      14      17  # HC-CT-HC
     30    5      16      14      17  # CT-CT-HC
     31    5      14      16      18  # CT-CT-HC
     32    5      14      16      19  # CT-CT-HC
     33    6      14      16      20  # CT-CT-OH
     34    3      18      16      19  # HC-CT-HC
     35    7      18      16      20  # HC-CT-OH
     36    7      19      16      20  # HC-CT-OH
     37    8      16      20      21  # CT-OH-HO
     38    6      24      23      25  # CT-CT-OH
     39    5      24      23      26  # CT-CT-HC
     40    5      24      23      27  # CT-CT-HC
     41    7      25      23      26  # HC-CT-OH
     42    7      25      23      27  # HC-CT-OH
     43    3      26      23      27  # HC-CT-HC
     44    5      23      24      28  # CT-CT-HC
     45    6      23      24      29  # CT-CT-OH
     46    5      23      24      30  # CT-CT-HC
     47    7      28      24      29  # HC-CT-OH
     48    3      28      24      30  # HC-CT-HC
     49    7      29      24      30  # HC-CT-OH
     50    8      23      25      31  # CT-OH-HO
     51    8      24      29      32  # CT-OH-HO
     52    6      34      33      35  # CT-CT-OH
     53    5      34      33      36  # CT-CT-HC
     54    5      34      33      37  # CT-CT-HC
     55    7      35      33      36  # HC-CT-OH
     56    7      35      33      37  # HC-CT-OH
     57    3      36      33      37  # HC-CT-HC
     58    5      33      34      38  # CT-CT-HC
     59    6      33      34      39  # CT-CT-OH
     60    5      33      34      40  # CT-CT-HC
     61    7      38      34      39  # HC-CT-OH
     62    3      38      34      40  # HC-CT-HC
     63    7      39      34      40  # HC-CT-OH
     64    8      33      35      41  # CT-OH-HO
     65    8      34      39      42  # CT-OH-HO

Dihedrals

      1    1       3       1       2       8  # HC-CT-NT-CT
      2    1       3       1       2       9  # HC-CT-NT-CT
      3    1       3       1       2      10  # HC-CT-NT-CT
      4    1       4       1       2       8  # HC-CT-NT-CT
      5    1       4       1       2       9  # HC-CT-NT-CT
      6    1       4       1       2      10  # HC-CT-NT-CT
      7    1      14       1       2       8  # HC-CT-NT-CT
      8    1      14       1       2       9  # HC-CT-NT-CT
      9    1      14       1       2      10  # HC-CT-NT-CT
     10    1       2       1       3       5  # HC-CT-NT-CT
     11    1       2       1       3       6  # HC-CT-NT-CT
     12    1       2       1       3       7  # HC-CT-NT-CT
     13    1       4       1       3       5  # HC-CT-NT-CT
     14    1       4       1       3       6  # HC-CT-NT-CT
     15    1       4       1       3       7  # HC-CT-NT-CT
     16    1      14       1       3       5  # HC-CT-NT-CT
     17    1      14       1       3       6  # HC-CT-NT-CT
     18    1      14       1       3       7  # HC-CT-NT-CT
     19    1       2       1       4      11  # HC-CT-NT-CT
     20    1       2       1       4      12  # HC-CT-NT-CT
     21    1       2       1       4      13  # HC-CT-NT-CT
     22    1       3       1       4      11  # HC-CT-NT-CT
     23    1       3       1       4      12  # HC-CT-NT-CT
     24    1       3       1       4      13  # HC-CT-NT-CT
     25    1      14       1       4      11  # HC-CT-NT-CT
     26    1      14       1       4      12  # HC-CT-NT-CT
     27    1      14       1       4      13  # HC-CT-NT-CT
     28    1       2       1      14      15  # HC-CT-NT-CT
     29    2       2       1      14      16  # CT-NT-CT-CT
     30    1       2       1      14      17  # HC-CT-NT-CT
     31    1       3       1      14      15  # HC-CT-NT-CT
     32    2       3       1      14      16  # CT-NT-CT-CT
     33    1       3       1      14      17  # HC-CT-NT-CT
     34    1       4       1      14      15  # HC-CT-NT-CT
     35    2       4       1      14      16  # CT-NT-CT-CT
     36    1       4       1      14      17  # HC-CT-NT-CT
     37    3       1      14      16      18  # HC-CT-CT-NT
     38    3       1      14      16      19  # HC-CT-CT-NT
     39    4       1      14      16      20  # OH-CT-CT-NT
     40    5      15      14      16      18  # HC-CT-CT-HC
     41    5      15      14      16      19  # HC-CT-CT-HC
     42    6      15      14      16      20  # HC-CT-CT-OH
     43    5      17      14      16      18  # HC-CT-CT-HC
     44    5      17      14      16      19  # HC-CT-CT-HC
     45    6      17      14      16      20  # HC-CT-CT-OH
     46    7      14      16      20      21  # CT-CT-OH-HO
     47    8      18      16      20      21  # HC-CT-OH-HO
     48    8      19      16      20      21  # HC-CT-OH-HO
     49    6      28      24      23      25  # HC-CT-CT-OH
     50    5      28      24      23      26  # HC-CT-CT-HC
     51    5      28      24      23      27  # HC-CT-CT-HC
     52    9      29      24      23      25  # OH-CT-CT-OH
     53    6      29      24      23      26  # HC-CT-CT-OH
     54    6      29      24      23      27  # HC-CT-CT-OH
     55    6      30      24      23      25  # HC-CT-CT-OH
     56    5      30      24      23      26  # HC-CT-CT-HC
     57    5      30      24      23      27  # HC-CT-CT-HC
     58    7      31      25      23      24  # CT-CT-OH-HO
     59    8      31      25      23      26  # HC-CT-OH-HO
     60    8      31      25      23      27  # HC-CT-OH-HO
     61    7      32      29      24      23  # CT-CT-OH-HO
     62    8      32      29      24      28  # HC-CT-OH-HO
     63    8      32      29      24      30  # HC-CT-OH-HO
     64    6      38      34      33      35  # HC-CT-CT-OH
     65    5      38      34      33      36  # HC-CT-CT-HC
     66    5      38      34      33      37  # HC-CT-CT-HC
     67    9      39      34      33      35  # OH-CT-CT-OH
     68    6      39      34      33      36  # HC-CT-CT-OH
     69    6      39      34      33      37  # HC-CT-CT-OH
     70    6      40      34      33      35  # HC-CT-CT-OH
     71    5      40      34      33      36  # HC-CT-CT-HC
     72    5      40      34      33      37  # HC-CT-CT-HC
     73    7      41      35      33      34  # CT-CT-OH-HO
     74    8      41      35      33      36  # HC-CT-OH-HO
     75    8      41      35      33      37  # HC-CT-OH-HO
     76    7      42      39      34      33  # CT-CT-OH-HO
     77    8      42      39      34      38  # HC-CT-OH-HO
     78    8      42      39      34      40  # HC-CT-OH-HO
