created by fftool

30 atoms
29 bonds
48 angles
66 dihedrals
15 atom types
10 bond types
15 angle types
24 dihedral types
0.000000 20.000000 xlo xhi
0.000000 20.000000 ylo yhi
0.000000 20.000000 zlo zhi

Masses

   1   14.007  # NA
   2   12.011  # CR
   3   12.011  # CW
   4   12.011  # C1
   5    1.008  # HCR
   6   12.011  # C1A
   7    1.008  # HCW
   8    1.008  # H1
   9   12.011  # C2
  10   12.011  # CS
  11    1.008  # HC
  12   12.011  # CT
  13   14.000  # N3A
  14   12.011  # CZA
  15   14.001  # NZA

Bond Coeffs

   1   477.055449     1.315000  # CR-NA
   2   427.103250     1.378000  # CW-NA
   3   520.076482     1.341000  # CW-CW
   4   336.998088     1.466000  # NA-CT
   5   339.985660     1.080000  # CR-HA
   6   339.985660     1.080000  # CW-HA
   7   339.985660     1.090000  # HC-CT
   8   267.925430     1.529000  # CT-CT
   9   502.629063     1.310000  # N3-CZ
  10   650.000000     1.157000  # CZ-NZ

Angle Coeffs

   1    70.004780   126.400000  # CR-NA-CT
   2    70.004780   108.000000  # CW-NA-CR
   3    70.004780   125.600000  # CW-NA-CT
   4    70.004780   109.800000  # NA-CR-NA
   5    35.002390   125.100000  # NA-CR-HA
   6    70.004780   107.100000  # NA-CW-CW
   7    35.002390   122.000000  # NA-CW-HA
   8    35.002390   130.900000  # CW-CW-HA
   9    37.500000   110.700000  # NA-CT-HC
  10    32.994742   107.800000  # HC-CT-HC
  11    58.353250   112.700000  # NA-CT-CT
  12    37.500000   110.700000  # CT-CT-HC
  13    58.353250   112.700000  # CT-CT-CT
  14    43.260038   118.500000  # CZ-N3-CZ
  15    50.788719   175.200000  # N3-CZ-NZ

Dihedral Coeffs

   1     0.000000     4.651052     0.000000     0.000000  # CT-NA-CR-NA
   2     0.000000     4.651052     0.000000     0.000000  # CW-NA-CR-NA
   3     0.000000     4.651052     0.000000     0.000000  # CT-NA-CR-HA
   4     0.000000     4.651052     0.000000     0.000000  # CW-NA-CR-HA
   5     0.000000     3.000000     0.000000     0.000000  # CR-NA-CW-CW
   6     0.000000     3.000000     0.000000     0.000000  # CT-NA-CW-CW
   7     0.000000     3.000000     0.000000     0.000000  # CR-NA-CW-HA
   8     0.000000     3.000000     0.000000     0.000000  # CT-NA-CW-HA
   9     0.000000    10.750478     0.000000     0.000000  # NA-CW-CW-HA
  10     0.000000    10.750478     0.000000     0.000000  # HA-CW-CW-HA
  11     0.000000    10.750478     0.000000     0.000000  # NA-CW-CW-NA
  12     0.000000     0.000000     0.000000     0.000000  # CR-NA-CT-HC
  13     0.000000     0.000000     0.124044     0.000000  # CW-NA-CT-HC
  14    -1.259345     0.000000     0.000000     0.000000  # CR-NA-CT-CT
  15    -1.709728     1.459465     0.189747     0.000000  # CW-NA-CT-CT
  16    -1.787691     0.756262    -0.287428     0.000000  # NA-CT-CT-CT
  17     0.000000     0.000000     0.300000     0.000000  # CT-CT-CT-HC
  18     0.000000     0.000000     0.087715     0.000000  # NA-CT-CT-HC
  19     0.000000     0.000000     0.300000     0.000000  # HC-CT-CT-HC
  20     1.300000    -0.050000     0.200000     0.000000  # CT-CT-CT-CT
  21     0.000000     0.000000     0.000000     0.000000  # NZ-CZ-N3-CZ
  22     0.000000     2.000000     0.000000     0.000000  # CR-CW-NA-CT
  23     0.000000     2.200000     0.000000     0.000000  # NA-NA-CR-HA
  24     0.000000     2.200000     0.000000     0.000000  # NA-CW-CW-HA

Atoms

      1       1    1   0.150000  8.123043e+00  5.573817e+00  2.399335e+00  # NA c4c1im+
      2       1    2  -0.110000  6.998605e+00  4.892033e+00  2.405250e+00  # CR c4c1im+
      3       1    1   0.150000  5.976235e+00  5.719061e+00  2.408178e+00  # NA c4c1im+
      4       1    3  -0.130000  6.469389e+00  7.005787e+00  2.403911e+00  # CW c4c1im+
      5       1    3  -0.130000  7.807319e+00  6.915269e+00  2.398400e+00  # CW c4c1im+
      6       1    4  -0.170000  9.478846e+00  5.016205e+00  2.394539e+00  # C1 c4c1im+
      7       1    5   0.210000  6.925713e+00  3.814497e+00  2.407383e+00  # HCR c4c1im+
      8       1    6  -0.170000  4.558428e+00  5.346321e+00  2.414812e+00  # C1A c4c1im+
      9       1    7   0.210000  5.887840e+00  7.915842e+00  2.404832e+00  # HCW c4c1im+
     10       1    7   0.210000  8.506134e+00  7.738700e+00  2.394047e+00  # HCW c4c1im+
     11       1    8   0.130000  1.001452e+01  5.354442e+00  3.281530e+00  # H1 c4c1im+
     12       1    8   0.130000  9.424541e+00  3.927561e+00  2.396612e+00  # H1 c4c1im+
     13       1    8   0.130000  1.000698e+01  5.351428e+00  1.501903e+00  # H1 c4c1im+
     14       1    9   0.010000  4.431282e+00  3.822620e+00  2.417930e+00  # C2 c4c1im+
     15       1    8   0.130000  4.079683e+00  5.752172e+00  3.305984e+00  # H1 c4c1im+
     16       1    8   0.130000  4.072148e+00  5.749158e+00  1.526356e+00  # H1 c4c1im+
     17       1   10  -0.120000  2.952546e+00  3.433861e+00  2.424849e+00  # CS c4c1im+
     18       1   11   0.060000  4.909214e+00  3.415800e+00  1.526764e+00  # HC c4c1im+
     19       1   11   0.060000  4.916749e+00  3.418813e+00  3.306391e+00  # HC c4c1im+
     20       1   12  -0.180000  2.825401e+00  1.910160e+00  2.427968e+00  # CT c4c1im+
     21       1   11   0.060000  2.466266e+00  3.836700e+00  1.536394e+00  # HC c4c1im+
     22       1   11   0.060000  2.473801e+00  3.839713e+00  3.316021e+00  # HC c4c1im+
     23       1   11   0.060000  1.771233e+00  1.633021e+00  2.432900e+00  # HC c4c1im+
     24       1   11   0.060000  3.310868e+00  1.506354e+00  3.316429e+00  # HC c4c1im+
     25       1   11   0.060000  3.303333e+00  1.503340e+00  1.536801e+00  # HC c4c1im+
     26       2   13  -0.760000  1.594449e+00  7.748440e+00  1.694878e+01  # N3A dca-
     27       2   14   0.640000  2.592471e+00  8.402488e+00  1.640815e+01  # CZA dca-
     28       2   15  -0.760000  3.404605e+00  9.042846e+00  1.590528e+01  # NZA dca-
     29       2   14   0.640000  1.847059e+00  6.620370e+00  1.756501e+01  # CZA dca-
     30       2   15  -0.760000  1.974542e+00  5.623875e+00  1.812470e+01  # NZA dca-

Bonds

      1    1       2       1  # CR-NA
      2    1       3       2  # CR-NA
      3    2       4       3  # CW-NA
      4    3       5       4  # CW-CW
      5    4       6       1  # NA-CT
      6    5       7       2  # CR-HA
      7    4       8       3  # NA-CT
      8    6       9       4  # CW-HA
      9    6      10       5  # CW-HA
     10    7      11       6  # HC-CT
     11    7      12       6  # HC-CT
     12    7      13       6  # HC-CT
     13    8      14       8  # CT-CT
     14    7      15       8  # HC-CT
     15    7      16       8  # HC-CT
     16    8      17      14  # CT-CT
     17    7      18      14  # HC-CT
     18    7      19      14  # HC-CT
     19    8      20      17  # CT-CT
     20    7      21      17  # HC-CT
     21    7      22      17  # HC-CT
     22    7      23      20  # HC-CT
     23    7      24      20  # HC-CT
     24    7      25      20  # HC-CT
     25    2       5       1  # CW-NA
     26    9      27      26  # N3-CZ
     27   10      28      27  # CZ-NZ
     28    9      29      26  # N3-CZ
     29   10      30      29  # CZ-NZ

Angles

      1    1       2       1       6  # CR-NA-CT
      2    2       2       1       5  # CW-NA-CR
      3    3       6       1       5  # CW-NA-CT
      4    4       1       2       3  # NA-CR-NA
      5    5       1       2       7  # NA-CR-HA
      6    5       3       2       7  # NA-CR-HA
      7    2       2       3       4  # CW-NA-CR
      8    1       2       3       8  # CR-NA-CT
      9    3       4       3       8  # CW-NA-CT
     10    6       3       4       5  # NA-CW-CW
     11    7       3       4       9  # NA-CW-HA
     12    8       5       4       9  # CW-CW-HA
     13    8       4       5      10  # CW-CW-HA
     14    6       4       5       1  # NA-CW-CW
     15    7      10       5       1  # NA-CW-HA
     16    9       1       6      11  # NA-CT-HC
     17    9       1       6      12  # NA-CT-HC
     18    9       1       6      13  # NA-CT-HC
     19   10      11       6      12  # HC-CT-HC
     20   10      11       6      13  # HC-CT-HC
     21   10      12       6      13  # HC-CT-HC
     22   11       3       8      14  # NA-CT-CT
     23    9       3       8      15  # NA-CT-HC
     24    9       3       8      16  # NA-CT-HC
     25   12      14       8      15  # CT-CT-HC
     26   12      14       8      16  # CT-CT-HC
     27   10      15       8      16  # HC-CT-HC
     28   13       8      14      17  # CT-CT-CT
     29   12       8      14      18  # CT-CT-HC
     30   12       8      14      19  # CT-CT-HC
     31   12      17      14      18  # CT-CT-HC
     32   12      17      14      19  # CT-CT-HC
     33   10      18      14      19  # HC-CT-HC
     34   13      14      17      20  # CT-CT-CT
     35   12      14      17      21  # CT-CT-HC
     36   12      14      17      22  # CT-CT-HC
     37   12      20      17      21  # CT-CT-HC
     38   12      20      17      22  # CT-CT-HC
     39   10      21      17      22  # HC-CT-HC
     40   12      17      20      23  # CT-CT-HC
     41   12      17      20      24  # CT-CT-HC
     42   12      17      20      25  # CT-CT-HC
     43   10      23      20      24  # HC-CT-HC
     44   10      23      20      25  # HC-CT-HC
     45   10      24      20      25  # HC-CT-HC
     46   14      27      26      29  # CZ-N3-CZ
     47   15      26      27      28  # N3-CZ-NZ
     48   15      26      29      30  # N3-CZ-NZ

Dihedrals

      1    1       3       2       1       6  # CT-NA-CR-NA
      2    2       3       2       1       5  # CW-NA-CR-NA
      3    3       7       2       1       6  # CT-NA-CR-HA
      4    4       7       2       1       5  # CW-NA-CR-HA
      5    2       4       3       2       1  # CW-NA-CR-NA
      6    4       4       3       2       7  # CW-NA-CR-HA
      7    1       8       3       2       1  # CT-NA-CR-NA
      8    3       8       3       2       7  # CT-NA-CR-HA
      9    5       5       4       3       2  # CR-NA-CW-CW
     10    6       5       4       3       8  # CT-NA-CW-CW
     11    7       9       4       3       2  # CR-NA-CW-HA
     12    8       9       4       3       8  # CT-NA-CW-HA
     13    9      10       5       4       3  # NA-CW-CW-HA
     14   10      10       5       4       9  # HA-CW-CW-HA
     15   11       1       5       4       3  # NA-CW-CW-NA
     16    9       1       5       4       9  # NA-CW-CW-HA
     17   12      11       6       1       2  # CR-NA-CT-HC
     18   13      11       6       1       5  # CW-NA-CT-HC
     19   12      12       6       1       2  # CR-NA-CT-HC
     20   13      12       6       1       5  # CW-NA-CT-HC
     21   12      13       6       1       2  # CR-NA-CT-HC
     22   13      13       6       1       5  # CW-NA-CT-HC
     23   14      14       8       3       2  # CR-NA-CT-CT
     24   15      14       8       3       4  # CW-NA-CT-CT
     25   12      15       8       3       2  # CR-NA-CT-HC
     26   13      15       8       3       4  # CW-NA-CT-HC
     27   12      16       8       3       2  # CR-NA-CT-HC
     28   13      16       8       3       4  # CW-NA-CT-HC
     29   16      17      14       8       3  # NA-CT-CT-CT
     30   17      17      14       8      15  # CT-CT-CT-HC
     31   17      17      14       8      16  # CT-CT-CT-HC
     32   18      18      14       8       3  # NA-CT-CT-HC
     33   19      18      14       8      15  # HC-CT-CT-HC
     34   19      18      14       8      16  # HC-CT-CT-HC
     35   18      19      14       8       3  # NA-CT-CT-HC
     36   19      19      14       8      15  # HC-CT-CT-HC
     37   19      19      14       8      16  # HC-CT-CT-HC
     38   20      20      17      14       8  # CT-CT-CT-CT
     39   17      20      17      14      18  # CT-CT-CT-HC
     40   17      20      17      14      19  # CT-CT-CT-HC
     41   17      21      17      14       8  # CT-CT-CT-HC
     42   19      21      17      14      18  # HC-CT-CT-HC
     43   19      21      17      14      19  # HC-CT-CT-HC
     44   17      22      17      14       8  # CT-CT-CT-HC
     45   19      22      17      14      18  # HC-CT-CT-HC
     46   19      22      17      14      19  # HC-CT-CT-HC
     47   17      23      20      17      14  # CT-CT-CT-HC
     48   19      23      20      17      21  # HC-CT-CT-HC
     49   19      23      20      17      22  # HC-CT-CT-HC
     50   17      24      20      17      14  # CT-CT-CT-HC
     51   19      24      20      17      21  # HC-CT-CT-HC
     52   19      24      20      17      22  # HC-CT-CT-HC
     53   17      25      20      17      14  # CT-CT-CT-HC
     54   19      25      20      17      21  # HC-CT-CT-HC
     55   19      25      20      17      22  # HC-CT-CT-HC
     56    5       4       5       1       2  # CR-NA-CW-CW
     57    6       4       5       1       6  # CT-NA-CW-CW
     58    7      10       5       1       2  # CR-NA-CW-HA
     59    8      10       5       1       6  # CT-NA-CW-HA
     60   22       2       5       1       6  # CR-CW-NA-CT
     61   23       1       3       2       7  # NA-NA-CR-HA
     62   22       2       4       3       8  # CR-CW-NA-CT
     63   24       3       5       4       9  # NA-CW-CW-HA
     64   24       1       4       5      10  # NA-CW-CW-HA
     65   21      28      27      26      29  # NZ-CZ-N3-CZ
     66   21      30      29      26      27  # NZ-CZ-N3-CZ
