created by fftool

22 atoms
20 bonds
21 angles
19 dihedrals
13 atom types
10 bond types
7 angle types
5 dihedral types
0.000000 20.000000 xlo xhi
0.000000 20.000000 ylo yhi
0.000000 20.000000 zlo zhi

Masses

   1   13.607  # N1 DC
   2   11.611  # C1N DC
   3    1.008  # HN
   4   11.611  # CEN DC
   5    1.008  # H1N
   6    1.008  # HCN
   7   13.601  # NO DC
   8   15.599  # ON DC
   9    0.400  # N1 DP
  10    0.400  # C1N DP
  11    0.400  # CEN DP
  12    0.400  # NO DP
  13    0.400  # ON DP

Bond Coeffs

   1   382.002868     1.448000  # NT-CT
   2   434.034417     1.010000  # HN-NT
   3   267.925430     1.529000  # CT-CT
   4   339.985660     1.090000  # HC-CT
   5   317.100860     1.256000  # NO-ON
   6   500.000000     0.000000  # N1 DC-DP
   7   500.000000     0.000000  # C1N DC-DP
   8   500.000000     0.000000  # CEN DC-DP
   9   500.000000     0.000000  # NO DC-DP
  10   500.000000     0.000000  # ON DC-DP

Angle Coeffs

   1    35.002390   109.500000  # HN-NT-CT
   2    35.002390   109.500000  # HN-NT-HN
   3    56.202199   109.500000  # NT-CT-CT
   4    35.002390   109.500000  # HC-CT-NT
   5    37.500000   110.700000  # CT-CT-HC
   6    32.982792   107.800000  # HC-CT-HC
   7    60.408700   120.000000  # ON-NO-ON

Dihedral Coeffs

   1    -0.190010    -0.416993     0.417997     0.000000  # HN-NT-CT-CT
   2     0.000000     0.000000     0.400000     0.000000  # HN-NT-CT-HC
   3    -1.013002    -0.709011     0.472992     0.000000  # HC-CT-CT-NT
   4     0.000000     0.000000     0.300000     0.000000  # HC-CT-CT-HC
   5     0.000000    21.000000     0.000000     0.000000  # ON-ON-NO-ON

Atoms

      1       1    1   2.0805  3.248784e+00  4.557215e+00  3.765105e+00  # N1 N2000 DC
      2       1    2   2.4372  2.774940e+00  3.206919e+00  3.544025e+00  # C1N N2000 DC
      3       1    3   0.3500  4.250901e+00  4.546547e+00  3.890596e+00  # HN N2000
      4       1    3   0.3500  2.810461e+00  4.937202e+00  4.591895e+00  # HN N2000
      5       1    4   2.1249  3.438500e+00  2.631670e+00  2.292379e+00  # CEN N2000 DC
      6       1    5   0.0800  1.693448e+00  3.218432e+00  3.408594e+00  # H1N N2000
      7       1    5   0.0800  3.026193e+00  2.587596e+00  4.405077e+00  # H1N N2000
      8       1    6   0.1300  3.199758e+00  3.236149e+00  1.417331e+00  # HCN N2000
      9       1    6   0.1300  3.095041e+00  1.613868e+00  2.107405e+00  # HCN N2000
     10       1    6   0.1300  4.522326e+00  2.610129e+00  2.406205e+00  # HCN N2000
     11       1    3   0.3500  3.015972e+00  5.131083e+00  2.967249e+00  # HN N2000
     12       2    7   3.3013  2.432274e+00  9.664879e+00  1.803765e+01  # NO no3 DC
     13       2    8   1.1761  2.235196e+00  8.430050e+00  1.791979e+01  # ON no3 DC
     14       2    8   1.1761  1.465226e+00  1.046393e+01  1.797540e+01  # ON no3 DC
     15       2    8   1.1761  3.596401e+00  1.010066e+01  1.821776e+01  # ON no3 DC
     16       1    9  -2.5605  3.204020e+00  4.515934e+00  3.755829e+00  # N1 N2000 DP
     17       1   10  -2.2372  2.735710e+00  3.247039e+00  3.497840e+00  # C1N N2000 DP
     18       1   11  -2.4449  3.442120e+00  2.614890e+00  2.327588e+00  # CEN N2000 DP
     19       2   12  -2.2613  2.398240e+00  9.648601e+00  1.802103e+01  # NO no3 DP
     20       2   13  -1.8561  2.209712e+00  8.380217e+00  1.791342e+01  # ON no3 DP
     21       2   13  -1.8561  1.423987e+00  1.047369e+01  1.793239e+01  # ON no3 DP
     22       2   13  -1.8561  3.577947e+00  1.009549e+01  1.825830e+01  # ON no3 DP

Bonds

      1    1       2       1  # NT-CT
      2    2       3       1  # HN-NT
      3    2       4       1  # HN-NT
      4    3       5       2  # CT-CT
      5    4       6       2  # HC-CT
      6    4       7       2  # HC-CT
      7    4       8       5  # HC-CT
      8    4       9       5  # HC-CT
      9    4      10       5  # HC-CT
     10    2      11       1  # HN-NT
     11    5      13      12  # NO-ON
     12    5      14      12  # NO-ON
     13    5      15      12  # NO-ON
     14    6       1      16  # N1 DC-DP
     15    7       2      17  # C1N DC-DP
     16    8       5      18  # CEN DC-DP
     17    9      12      19  # NO DC-DP
     18   10      13      20  # ON DC-DP
     19   10      14      21  # ON DC-DP
     20   10      15      22  # ON DC-DP

Angles

      1    1       2       1       3  # HN-NT-CT
      2    1       2       1       4  # HN-NT-CT
      3    1       2       1      11  # HN-NT-CT
      4    2       3       1       4  # HN-NT-HN
      5    2       3       1      11  # HN-NT-HN
      6    2       4       1      11  # HN-NT-HN
      7    3       1       2       5  # NT-CT-CT
      8    4       1       2       6  # HC-CT-NT
      9    4       1       2       7  # HC-CT-NT
     10    5       5       2       6  # CT-CT-HC
     11    5       5       2       7  # CT-CT-HC
     12    6       6       2       7  # HC-CT-HC
     13    5       2       5       8  # CT-CT-HC
     14    5       2       5       9  # CT-CT-HC
     15    5       2       5      10  # CT-CT-HC
     16    6       8       5       9  # HC-CT-HC
     17    6       8       5      10  # HC-CT-HC
     18    6       9       5      10  # HC-CT-HC
     19    7      13      12      14  # ON-NO-ON
     20    7      13      12      15  # ON-NO-ON
     21    7      14      12      15  # ON-NO-ON

Dihedrals

      1    1       5       2       1       3  # HN-NT-CT-CT
      2    1       5       2       1       4  # HN-NT-CT-CT
      3    1       5       2       1      11  # HN-NT-CT-CT
      4    2       6       2       1       3  # HN-NT-CT-HC
      5    2       6       2       1       4  # HN-NT-CT-HC
      6    2       6       2       1      11  # HN-NT-CT-HC
      7    2       7       2       1       3  # HN-NT-CT-HC
      8    2       7       2       1       4  # HN-NT-CT-HC
      9    2       7       2       1      11  # HN-NT-CT-HC
     10    3       8       5       2       1  # HC-CT-CT-NT
     11    4       8       5       2       6  # HC-CT-CT-HC
     12    4       8       5       2       7  # HC-CT-CT-HC
     13    3       9       5       2       1  # HC-CT-CT-NT
     14    4       9       5       2       6  # HC-CT-CT-HC
     15    4       9       5       2       7  # HC-CT-CT-HC
     16    3      10       5       2       1  # HC-CT-CT-NT
     17    4      10       5       2       6  # HC-CT-CT-HC
     18    4      10       5       2       7  # HC-CT-CT-HC
     19    5      13      14      12      15  # ON-ON-NO-ON
