created by fftool

15 atoms
13 bonds
21 angles
19 dihedrals
8 atom types
5 bond types
7 angle types
5 dihedral types
0.000000 20.000000 xlo xhi
0.000000 20.000000 ylo yhi
0.000000 20.000000 zlo zhi

Masses

   1   14.007  # N1
   2   12.011  # C1N
   3    1.008  # HN
   4   12.011  # CEN
   5    1.008  # H1N
   6    1.008  # HCN
   7   14.001  # NO
   8   15.999  # ON

Bond Coeffs

   1   382.002868     1.448000  # NT-CT
   2   434.034417     1.010000  # HN-NT
   3   267.925430     1.529000  # CT-CT
   4   339.985660     1.090000  # HC-CT
   5   317.100860     1.256000  # NO-ON

Angle Coeffs

   1    35.002390   109.500000  # HN-NT-CT
   2    35.002390   109.500000  # HN-NT-HN
   3    56.202199   109.500000  # NT-CT-CT
   4    35.002390   109.500000  # HC-CT-NT
   5    37.500000   110.700000  # CT-CT-HC
   6    32.982792   107.800000  # HC-CT-HC
   7    60.408700   120.000000  # ON-NO-ON

Dihedral Coeffs

   1    -0.190010    -0.416993     0.417997     0.000000  # HN-NT-CT-CT
   2     0.000000     0.000000     0.400000     0.000000  # HN-NT-CT-HC
   3    -1.013002    -0.709011     0.472992     0.000000  # HC-CT-CT-NT
   4     0.000000     0.000000     0.300000     0.000000  # HC-CT-CT-HC
   5     0.000000    21.000000     0.000000     0.000000  # ON-ON-NO-ON

Atoms

      1       1    1  -0.4800  3.248784e+00  4.557215e+00  3.765105e+00  # N1 N2000
      2       1    2   0.2000  2.774940e+00  3.206919e+00  3.544025e+00  # C1N N2000
      3       1    3   0.3500  4.250901e+00  4.546547e+00  3.890596e+00  # HN N2000
      4       1    3   0.3500  2.810461e+00  4.937202e+00  4.591895e+00  # HN N2000
      5       1    4  -0.3200  3.438500e+00  2.631670e+00  2.292379e+00  # CEN N2000
      6       1    5   0.0800  1.693448e+00  3.218432e+00  3.408594e+00  # H1N N2000
      7       1    5   0.0800  3.026193e+00  2.587596e+00  4.405077e+00  # H1N N2000
      8       1    6   0.1300  3.199758e+00  3.236149e+00  1.417331e+00  # HCN N2000
      9       1    6   0.1300  3.095041e+00  1.613868e+00  2.107405e+00  # HCN N2000
     10       1    6   0.1300  4.522326e+00  2.610129e+00  2.406205e+00  # HCN N2000
     11       1    3   0.3500  3.015972e+00  5.131083e+00  2.967249e+00  # HN N2000
     12       2    7   1.0400  2.432274e+00  9.664879e+00  1.803765e+01  # NO no3
     13       2    8  -0.6800  2.235196e+00  8.430050e+00  1.791979e+01  # ON no3
     14       2    8  -0.6800  1.465226e+00  1.046393e+01  1.797540e+01  # ON no3
     15       2    8  -0.6800  3.596401e+00  1.010066e+01  1.821776e+01  # ON no3

Bonds

      1    1       2       1  # NT-CT
      2    2       3       1  # HN-NT
      3    2       4       1  # HN-NT
      4    3       5       2  # CT-CT
      5    4       6       2  # HC-CT
      6    4       7       2  # HC-CT
      7    4       8       5  # HC-CT
      8    4       9       5  # HC-CT
      9    4      10       5  # HC-CT
     10    2      11       1  # HN-NT
     11    5      13      12  # NO-ON
     12    5      14      12  # NO-ON
     13    5      15      12  # NO-ON

Angles

      1    1       2       1       3  # HN-NT-CT
      2    1       2       1       4  # HN-NT-CT
      3    1       2       1      11  # HN-NT-CT
      4    2       3       1       4  # HN-NT-HN
      5    2       3       1      11  # HN-NT-HN
      6    2       4       1      11  # HN-NT-HN
      7    3       1       2       5  # NT-CT-CT
      8    4       1       2       6  # HC-CT-NT
      9    4       1       2       7  # HC-CT-NT
     10    5       5       2       6  # CT-CT-HC
     11    5       5       2       7  # CT-CT-HC
     12    6       6       2       7  # HC-CT-HC
     13    5       2       5       8  # CT-CT-HC
     14    5       2       5       9  # CT-CT-HC
     15    5       2       5      10  # CT-CT-HC
     16    6       8       5       9  # HC-CT-HC
     17    6       8       5      10  # HC-CT-HC
     18    6       9       5      10  # HC-CT-HC
     19    7      13      12      14  # ON-NO-ON
     20    7      13      12      15  # ON-NO-ON
     21    7      14      12      15  # ON-NO-ON

Dihedrals

      1    1       5       2       1       3  # HN-NT-CT-CT
      2    1       5       2       1       4  # HN-NT-CT-CT
      3    1       5       2       1      11  # HN-NT-CT-CT
      4    2       6       2       1       3  # HN-NT-CT-HC
      5    2       6       2       1       4  # HN-NT-CT-HC
      6    2       6       2       1      11  # HN-NT-CT-HC
      7    2       7       2       1       3  # HN-NT-CT-HC
      8    2       7       2       1       4  # HN-NT-CT-HC
      9    2       7       2       1      11  # HN-NT-CT-HC
     10    3       8       5       2       1  # HC-CT-CT-NT
     11    4       8       5       2       6  # HC-CT-CT-HC
     12    4       8       5       2       7  # HC-CT-CT-HC
     13    3       9       5       2       1  # HC-CT-CT-NT
     14    4       9       5       2       6  # HC-CT-CT-HC
     15    4       9       5       2       7  # HC-CT-CT-HC
     16    3      10       5       2       1  # HC-CT-CT-NT
     17    4      10       5       2       6  # HC-CT-CT-HC
     18    4      10       5       2       7  # HC-CT-CT-HC
     19    5      13      14      12      15  # ON-ON-NO-ON
